LAMMPS INITIAL FILE 

2560  atoms 
 3  atom types 

0.0     50.3152   xlo xhi 
0.0     50.3152   ylo yhi 
0.0     50.3152   zlo zhi 
 
Masses 
 
1  207.200000 
2  126.900000 
3  132.910000 

Atoms 

1  1  1     0.850000     0.000000     0.000000     0.000000
2  2  2    -0.570000     0.000000     3.144700     0.000000
3  3  2    -0.570000     0.000000     0.000000     3.144700
4  4  2    -0.570000     3.144700     0.000000     0.000000
5  5  3     0.860000     3.144700     3.144700     3.144700
6  6  1     0.850000     6.289400     0.000000     0.000000
7  7  2    -0.570000     6.289400     3.144700     0.000000
8  8  2    -0.570000     6.289400     0.000000     3.144700
9  9  2    -0.570000     9.434100     0.000000     0.000000
10  10  3     0.860000     9.434100     3.144700     3.144700
11  11  1     0.850000    12.578800     0.000000     0.000000
12  12  2    -0.570000    12.578800     3.144700     0.000000
13  13  2    -0.570000    12.578800     0.000000     3.144700
14  14  2    -0.570000    15.723500     0.000000     0.000000
15  15  3     0.860000    15.723500     3.144700     3.144700
16  16  1     0.850000    18.868200     0.000000     0.000000
17  17  2    -0.570000    18.868200     3.144700     0.000000
18  18  2    -0.570000    18.868200     0.000000     3.144700
19  19  2    -0.570000    22.012900     0.000000     0.000000
20  20  3     0.860000    22.012900     3.144700     3.144700
21  21  1     0.850000    25.157600     0.000000     0.000000
22  22  2    -0.570000    25.157600     3.144700     0.000000
23  23  2    -0.570000    25.157600     0.000000     3.144700
24  24  2    -0.570000    28.302300     0.000000     0.000000
25  25  3     0.860000    28.302300     3.144700     3.144700
26  26  1     0.850000    31.447000     0.000000     0.000000
27  27  2    -0.570000    31.447000     3.144700     0.000000
28  28  2    -0.570000    31.447000     0.000000     3.144700
29  29  2    -0.570000    34.591700     0.000000     0.000000
30  30  3     0.860000    34.591700     3.144700     3.144700
31  31  1     0.850000    37.736400     0.000000     0.000000
32  32  2    -0.570000    37.736400     3.144700     0.000000
33  33  2    -0.570000    37.736400     0.000000     3.144700
34  34  2    -0.570000    40.881100     0.000000     0.000000
35  35  3     0.860000    40.881100     3.144700     3.144700
36  36  1     0.850000    44.025800     0.000000     0.000000
37  37  2    -0.570000    44.025800     3.144700     0.000000
38  38  2    -0.570000    44.025800     0.000000     3.144700
39  39  2    -0.570000    47.170500     0.000000     0.000000
40  40  3     0.860000    47.170500     3.144700     3.144700
41  41  1     0.850000     0.000000     0.000000     6.289400
42  42  2    -0.570000     0.000000     3.144700     6.289400
43  43  2    -0.570000     0.000000     0.000000     9.434100
44  44  2    -0.570000     3.144700     0.000000     6.289400
45  45  3     0.860000     3.144700     3.144700     9.434100
46  46  1     0.850000     6.289400     0.000000     6.289400
47  47  2    -0.570000     6.289400     3.144700     6.289400
48  48  2    -0.570000     6.289400     0.000000     9.434100
49  49  2    -0.570000     9.434100     0.000000     6.289400
50  50  3     0.860000     9.434100     3.144700     9.434100
51  51  1     0.850000    12.578800     0.000000     6.289400
52  52  2    -0.570000    12.578800     3.144700     6.289400
53  53  2    -0.570000    12.578800     0.000000     9.434100
54  54  2    -0.570000    15.723500     0.000000     6.289400
55  55  3     0.860000    15.723500     3.144700     9.434100
56  56  1     0.850000    18.868200     0.000000     6.289400
57  57  2    -0.570000    18.868200     3.144700     6.289400
58  58  2    -0.570000    18.868200     0.000000     9.434100
59  59  2    -0.570000    22.012900     0.000000     6.289400
60  60  3     0.860000    22.012900     3.144700     9.434100
61  61  1     0.850000    25.157600     0.000000     6.289400
62  62  2    -0.570000    25.157600     3.144700     6.289400
63  63  2    -0.570000    25.157600     0.000000     9.434100
64  64  2    -0.570000    28.302300     0.000000     6.289400
65  65  3     0.860000    28.302300     3.144700     9.434100
66  66  1     0.850000    31.447000     0.000000     6.289400
67  67  2    -0.570000    31.447000     3.144700     6.289400
68  68  2    -0.570000    31.447000     0.000000     9.434100
69  69  2    -0.570000    34.591700     0.000000     6.289400
70  70  3     0.860000    34.591700     3.144700     9.434100
71  71  1     0.850000    37.736400     0.000000     6.289400
72  72  2    -0.570000    37.736400     3.144700     6.289400
73  73  2    -0.570000    37.736400     0.000000     9.434100
74  74  2    -0.570000    40.881100     0.000000     6.289400
75  75  3     0.860000    40.881100     3.144700     9.434100
76  76  1     0.850000    44.025800     0.000000     6.289400
77  77  2    -0.570000    44.025800     3.144700     6.289400
78  78  2    -0.570000    44.025800     0.000000     9.434100
79  79  2    -0.570000    47.170500     0.000000     6.289400
80  80  3     0.860000    47.170500     3.144700     9.434100
81  81  1     0.850000     0.000000     0.000000    12.578800
82  82  2    -0.570000     0.000000     3.144700    12.578800
83  83  2    -0.570000     0.000000     0.000000    15.723500
84  84  2    -0.570000     3.144700     0.000000    12.578800
85  85  3     0.860000     3.144700     3.144700    15.723500
86  86  1     0.850000     6.289400     0.000000    12.578800
87  87  2    -0.570000     6.289400     3.144700    12.578800
88  88  2    -0.570000     6.289400     0.000000    15.723500
89  89  2    -0.570000     9.434100     0.000000    12.578800
90  90  3     0.860000     9.434100     3.144700    15.723500
91  91  1     0.850000    12.578800     0.000000    12.578800
92  92  2    -0.570000    12.578800     3.144700    12.578800
93  93  2    -0.570000    12.578800     0.000000    15.723500
94  94  2    -0.570000    15.723500     0.000000    12.578800
95  95  3     0.860000    15.723500     3.144700    15.723500
96  96  1     0.850000    18.868200     0.000000    12.578800
97  97  2    -0.570000    18.868200     3.144700    12.578800
98  98  2    -0.570000    18.868200     0.000000    15.723500
99  99  2    -0.570000    22.012900     0.000000    12.578800
100  100  3     0.860000    22.012900     3.144700    15.723500
101  101  1     0.850000    25.157600     0.000000    12.578800
102  102  2    -0.570000    25.157600     3.144700    12.578800
103  103  2    -0.570000    25.157600     0.000000    15.723500
104  104  2    -0.570000    28.302300     0.000000    12.578800
105  105  3     0.860000    28.302300     3.144700    15.723500
106  106  1     0.850000    31.447000     0.000000    12.578800
107  107  2    -0.570000    31.447000     3.144700    12.578800
108  108  2    -0.570000    31.447000     0.000000    15.723500
109  109  2    -0.570000    34.591700     0.000000    12.578800
110  110  3     0.860000    34.591700     3.144700    15.723500
111  111  1     0.850000    37.736400     0.000000    12.578800
112  112  2    -0.570000    37.736400     3.144700    12.578800
113  113  2    -0.570000    37.736400     0.000000    15.723500
114  114  2    -0.570000    40.881100     0.000000    12.578800
115  115  3     0.860000    40.881100     3.144700    15.723500
116  116  1     0.850000    44.025800     0.000000    12.578800
117  117  2    -0.570000    44.025800     3.144700    12.578800
118  118  2    -0.570000    44.025800     0.000000    15.723500
119  119  2    -0.570000    47.170500     0.000000    12.578800
120  120  3     0.860000    47.170500     3.144700    15.723500
121  121  1     0.850000     0.000000     0.000000    18.868200
122  122  2    -0.570000     0.000000     3.144700    18.868200
123  123  2    -0.570000     0.000000     0.000000    22.012900
124  124  2    -0.570000     3.144700     0.000000    18.868200
125  125  3     0.860000     3.144700     3.144700    22.012900
126  126  1     0.850000     6.289400     0.000000    18.868200
127  127  2    -0.570000     6.289400     3.144700    18.868200
128  128  2    -0.570000     6.289400     0.000000    22.012900
129  129  2    -0.570000     9.434100     0.000000    18.868200
130  130  3     0.860000     9.434100     3.144700    22.012900
131  131  1     0.850000    12.578800     0.000000    18.868200
132  132  2    -0.570000    12.578800     3.144700    18.868200
133  133  2    -0.570000    12.578800     0.000000    22.012900
134  134  2    -0.570000    15.723500     0.000000    18.868200
135  135  3     0.860000    15.723500     3.144700    22.012900
136  136  1     0.850000    18.868200     0.000000    18.868200
137  137  2    -0.570000    18.868200     3.144700    18.868200
138  138  2    -0.570000    18.868200     0.000000    22.012900
139  139  2    -0.570000    22.012900     0.000000    18.868200
140  140  3     0.860000    22.012900     3.144700    22.012900
141  141  1     0.850000    25.157600     0.000000    18.868200
142  142  2    -0.570000    25.157600     3.144700    18.868200
143  143  2    -0.570000    25.157600     0.000000    22.012900
144  144  2    -0.570000    28.302300     0.000000    18.868200
145  145  3     0.860000    28.302300     3.144700    22.012900
146  146  1     0.850000    31.447000     0.000000    18.868200
147  147  2    -0.570000    31.447000     3.144700    18.868200
148  148  2    -0.570000    31.447000     0.000000    22.012900
149  149  2    -0.570000    34.591700     0.000000    18.868200
150  150  3     0.860000    34.591700     3.144700    22.012900
151  151  1     0.850000    37.736400     0.000000    18.868200
152  152  2    -0.570000    37.736400     3.144700    18.868200
153  153  2    -0.570000    37.736400     0.000000    22.012900
154  154  2    -0.570000    40.881100     0.000000    18.868200
155  155  3     0.860000    40.881100     3.144700    22.012900
156  156  1     0.850000    44.025800     0.000000    18.868200
157  157  2    -0.570000    44.025800     3.144700    18.868200
158  158  2    -0.570000    44.025800     0.000000    22.012900
159  159  2    -0.570000    47.170500     0.000000    18.868200
160  160  3     0.860000    47.170500     3.144700    22.012900
161  161  1     0.850000     0.000000     0.000000    25.157600
162  162  2    -0.570000     0.000000     3.144700    25.157600
163  163  2    -0.570000     0.000000     0.000000    28.302300
164  164  2    -0.570000     3.144700     0.000000    25.157600
165  165  3     0.860000     3.144700     3.144700    28.302300
166  166  1     0.850000     6.289400     0.000000    25.157600
167  167  2    -0.570000     6.289400     3.144700    25.157600
168  168  2    -0.570000     6.289400     0.000000    28.302300
169  169  2    -0.570000     9.434100     0.000000    25.157600
170  170  3     0.860000     9.434100     3.144700    28.302300
171  171  1     0.850000    12.578800     0.000000    25.157600
172  172  2    -0.570000    12.578800     3.144700    25.157600
173  173  2    -0.570000    12.578800     0.000000    28.302300
174  174  2    -0.570000    15.723500     0.000000    25.157600
175  175  3     0.860000    15.723500     3.144700    28.302300
176  176  1     0.850000    18.868200     0.000000    25.157600
177  177  2    -0.570000    18.868200     3.144700    25.157600
178  178  2    -0.570000    18.868200     0.000000    28.302300
179  179  2    -0.570000    22.012900     0.000000    25.157600
180  180  3     0.860000    22.012900     3.144700    28.302300
181  181  1     0.850000    25.157600     0.000000    25.157600
182  182  2    -0.570000    25.157600     3.144700    25.157600
183  183  2    -0.570000    25.157600     0.000000    28.302300
184  184  2    -0.570000    28.302300     0.000000    25.157600
185  185  3     0.860000    28.302300     3.144700    28.302300
186  186  1     0.850000    31.447000     0.000000    25.157600
187  187  2    -0.570000    31.447000     3.144700    25.157600
188  188  2    -0.570000    31.447000     0.000000    28.302300
189  189  2    -0.570000    34.591700     0.000000    25.157600
190  190  3     0.860000    34.591700     3.144700    28.302300
191  191  1     0.850000    37.736400     0.000000    25.157600
192  192  2    -0.570000    37.736400     3.144700    25.157600
193  193  2    -0.570000    37.736400     0.000000    28.302300
194  194  2    -0.570000    40.881100     0.000000    25.157600
195  195  3     0.860000    40.881100     3.144700    28.302300
196  196  1     0.850000    44.025800     0.000000    25.157600
197  197  2    -0.570000    44.025800     3.144700    25.157600
198  198  2    -0.570000    44.025800     0.000000    28.302300
199  199  2    -0.570000    47.170500     0.000000    25.157600
200  200  3     0.860000    47.170500     3.144700    28.302300
201  201  1     0.850000     0.000000     0.000000    31.447000
202  202  2    -0.570000     0.000000     3.144700    31.447000
203  203  2    -0.570000     0.000000     0.000000    34.591700
204  204  2    -0.570000     3.144700     0.000000    31.447000
205  205  3     0.860000     3.144700     3.144700    34.591700
206  206  1     0.850000     6.289400     0.000000    31.447000
207  207  2    -0.570000     6.289400     3.144700    31.447000
208  208  2    -0.570000     6.289400     0.000000    34.591700
209  209  2    -0.570000     9.434100     0.000000    31.447000
210  210  3     0.860000     9.434100     3.144700    34.591700
211  211  1     0.850000    12.578800     0.000000    31.447000
212  212  2    -0.570000    12.578800     3.144700    31.447000
213  213  2    -0.570000    12.578800     0.000000    34.591700
214  214  2    -0.570000    15.723500     0.000000    31.447000
215  215  3     0.860000    15.723500     3.144700    34.591700
216  216  1     0.850000    18.868200     0.000000    31.447000
217  217  2    -0.570000    18.868200     3.144700    31.447000
218  218  2    -0.570000    18.868200     0.000000    34.591700
219  219  2    -0.570000    22.012900     0.000000    31.447000
220  220  3     0.860000    22.012900     3.144700    34.591700
221  221  1     0.850000    25.157600     0.000000    31.447000
222  222  2    -0.570000    25.157600     3.144700    31.447000
223  223  2    -0.570000    25.157600     0.000000    34.591700
224  224  2    -0.570000    28.302300     0.000000    31.447000
225  225  3     0.860000    28.302300     3.144700    34.591700
226  226  1     0.850000    31.447000     0.000000    31.447000
227  227  2    -0.570000    31.447000     3.144700    31.447000
228  228  2    -0.570000    31.447000     0.000000    34.591700
229  229  2    -0.570000    34.591700     0.000000    31.447000
230  230  3     0.860000    34.591700     3.144700    34.591700
231  231  1     0.850000    37.736400     0.000000    31.447000
232  232  2    -0.570000    37.736400     3.144700    31.447000
233  233  2    -0.570000    37.736400     0.000000    34.591700
234  234  2    -0.570000    40.881100     0.000000    31.447000
235  235  3     0.860000    40.881100     3.144700    34.591700
236  236  1     0.850000    44.025800     0.000000    31.447000
237  237  2    -0.570000    44.025800     3.144700    31.447000
238  238  2    -0.570000    44.025800     0.000000    34.591700
239  239  2    -0.570000    47.170500     0.000000    31.447000
240  240  3     0.860000    47.170500     3.144700    34.591700
241  241  1     0.850000     0.000000     0.000000    37.736400
242  242  2    -0.570000     0.000000     3.144700    37.736400
243  243  2    -0.570000     0.000000     0.000000    40.881100
244  244  2    -0.570000     3.144700     0.000000    37.736400
245  245  3     0.860000     3.144700     3.144700    40.881100
246  246  1     0.850000     6.289400     0.000000    37.736400
247  247  2    -0.570000     6.289400     3.144700    37.736400
248  248  2    -0.570000     6.289400     0.000000    40.881100
249  249  2    -0.570000     9.434100     0.000000    37.736400
250  250  3     0.860000     9.434100     3.144700    40.881100
251  251  1     0.850000    12.578800     0.000000    37.736400
252  252  2    -0.570000    12.578800     3.144700    37.736400
253  253  2    -0.570000    12.578800     0.000000    40.881100
254  254  2    -0.570000    15.723500     0.000000    37.736400
255  255  3     0.860000    15.723500     3.144700    40.881100
256  256  1     0.850000    18.868200     0.000000    37.736400
257  257  2    -0.570000    18.868200     3.144700    37.736400
258  258  2    -0.570000    18.868200     0.000000    40.881100
259  259  2    -0.570000    22.012900     0.000000    37.736400
260  260  3     0.860000    22.012900     3.144700    40.881100
261  261  1     0.850000    25.157600     0.000000    37.736400
262  262  2    -0.570000    25.157600     3.144700    37.736400
263  263  2    -0.570000    25.157600     0.000000    40.881100
264  264  2    -0.570000    28.302300     0.000000    37.736400
265  265  3     0.860000    28.302300     3.144700    40.881100
266  266  1     0.850000    31.447000     0.000000    37.736400
267  267  2    -0.570000    31.447000     3.144700    37.736400
268  268  2    -0.570000    31.447000     0.000000    40.881100
269  269  2    -0.570000    34.591700     0.000000    37.736400
270  270  3     0.860000    34.591700     3.144700    40.881100
271  271  1     0.850000    37.736400     0.000000    37.736400
272  272  2    -0.570000    37.736400     3.144700    37.736400
273  273  2    -0.570000    37.736400     0.000000    40.881100
274  274  2    -0.570000    40.881100     0.000000    37.736400
275  275  3     0.860000    40.881100     3.144700    40.881100
276  276  1     0.850000    44.025800     0.000000    37.736400
277  277  2    -0.570000    44.025800     3.144700    37.736400
278  278  2    -0.570000    44.025800     0.000000    40.881100
279  279  2    -0.570000    47.170500     0.000000    37.736400
280  280  3     0.860000    47.170500     3.144700    40.881100
281  281  1     0.850000     0.000000     0.000000    44.025800
282  282  2    -0.570000     0.000000     3.144700    44.025800
283  283  2    -0.570000     0.000000     0.000000    47.170500
284  284  2    -0.570000     3.144700     0.000000    44.025800
285  285  3     0.860000     3.144700     3.144700    47.170500
286  286  1     0.850000     6.289400     0.000000    44.025800
287  287  2    -0.570000     6.289400     3.144700    44.025800
288  288  2    -0.570000     6.289400     0.000000    47.170500
289  289  2    -0.570000     9.434100     0.000000    44.025800
290  290  3     0.860000     9.434100     3.144700    47.170500
291  291  1     0.850000    12.578800     0.000000    44.025800
292  292  2    -0.570000    12.578800     3.144700    44.025800
293  293  2    -0.570000    12.578800     0.000000    47.170500
294  294  2    -0.570000    15.723500     0.000000    44.025800
295  295  3     0.860000    15.723500     3.144700    47.170500
296  296  1     0.850000    18.868200     0.000000    44.025800
297  297  2    -0.570000    18.868200     3.144700    44.025800
298  298  2    -0.570000    18.868200     0.000000    47.170500
299  299  2    -0.570000    22.012900     0.000000    44.025800
300  300  3     0.860000    22.012900     3.144700    47.170500
301  301  1     0.850000    25.157600     0.000000    44.025800
302  302  2    -0.570000    25.157600     3.144700    44.025800
303  303  2    -0.570000    25.157600     0.000000    47.170500
304  304  2    -0.570000    28.302300     0.000000    44.025800
305  305  3     0.860000    28.302300     3.144700    47.170500
306  306  1     0.850000    31.447000     0.000000    44.025800
307  307  2    -0.570000    31.447000     3.144700    44.025800
308  308  2    -0.570000    31.447000     0.000000    47.170500
309  309  2    -0.570000    34.591700     0.000000    44.025800
310  310  3     0.860000    34.591700     3.144700    47.170500
311  311  1     0.850000    37.736400     0.000000    44.025800
312  312  2    -0.570000    37.736400     3.144700    44.025800
313  313  2    -0.570000    37.736400     0.000000    47.170500
314  314  2    -0.570000    40.881100     0.000000    44.025800
315  315  3     0.860000    40.881100     3.144700    47.170500
316  316  1     0.850000    44.025800     0.000000    44.025800
317  317  2    -0.570000    44.025800     3.144700    44.025800
318  318  2    -0.570000    44.025800     0.000000    47.170500
319  319  2    -0.570000    47.170500     0.000000    44.025800
320  320  3     0.860000    47.170500     3.144700    47.170500
321  321  1     0.850000     0.000000     6.289400     0.000000
322  322  2    -0.570000     0.000000     9.434100     0.000000
323  323  2    -0.570000     0.000000     6.289400     3.144700
324  324  2    -0.570000     3.144700     6.289400     0.000000
325  325  3     0.860000     3.144700     9.434100     3.144700
326  326  1     0.850000     6.289400     6.289400     0.000000
327  327  2    -0.570000     6.289400     9.434100     0.000000
328  328  2    -0.570000     6.289400     6.289400     3.144700
329  329  2    -0.570000     9.434100     6.289400     0.000000
330  330  3     0.860000     9.434100     9.434100     3.144700
331  331  1     0.850000    12.578800     6.289400     0.000000
332  332  2    -0.570000    12.578800     9.434100     0.000000
333  333  2    -0.570000    12.578800     6.289400     3.144700
334  334  2    -0.570000    15.723500     6.289400     0.000000
335  335  3     0.860000    15.723500     9.434100     3.144700
336  336  1     0.850000    18.868200     6.289400     0.000000
337  337  2    -0.570000    18.868200     9.434100     0.000000
338  338  2    -0.570000    18.868200     6.289400     3.144700
339  339  2    -0.570000    22.012900     6.289400     0.000000
340  340  3     0.860000    22.012900     9.434100     3.144700
341  341  1     0.850000    25.157600     6.289400     0.000000
342  342  2    -0.570000    25.157600     9.434100     0.000000
343  343  2    -0.570000    25.157600     6.289400     3.144700
344  344  2    -0.570000    28.302300     6.289400     0.000000
345  345  3     0.860000    28.302300     9.434100     3.144700
346  346  1     0.850000    31.447000     6.289400     0.000000
347  347  2    -0.570000    31.447000     9.434100     0.000000
348  348  2    -0.570000    31.447000     6.289400     3.144700
349  349  2    -0.570000    34.591700     6.289400     0.000000
350  350  3     0.860000    34.591700     9.434100     3.144700
351  351  1     0.850000    37.736400     6.289400     0.000000
352  352  2    -0.570000    37.736400     9.434100     0.000000
353  353  2    -0.570000    37.736400     6.289400     3.144700
354  354  2    -0.570000    40.881100     6.289400     0.000000
355  355  3     0.860000    40.881100     9.434100     3.144700
356  356  1     0.850000    44.025800     6.289400     0.000000
357  357  2    -0.570000    44.025800     9.434100     0.000000
358  358  2    -0.570000    44.025800     6.289400     3.144700
359  359  2    -0.570000    47.170500     6.289400     0.000000
360  360  3     0.860000    47.170500     9.434100     3.144700
361  361  1     0.850000     0.000000     6.289400     6.289400
362  362  2    -0.570000     0.000000     9.434100     6.289400
363  363  2    -0.570000     0.000000     6.289400     9.434100
364  364  2    -0.570000     3.144700     6.289400     6.289400
365  365  3     0.860000     3.144700     9.434100     9.434100
366  366  1     0.850000     6.289400     6.289400     6.289400
367  367  2    -0.570000     6.289400     9.434100     6.289400
368  368  2    -0.570000     6.289400     6.289400     9.434100
369  369  2    -0.570000     9.434100     6.289400     6.289400
370  370  3     0.860000     9.434100     9.434100     9.434100
371  371  1     0.850000    12.578800     6.289400     6.289400
372  372  2    -0.570000    12.578800     9.434100     6.289400
373  373  2    -0.570000    12.578800     6.289400     9.434100
374  374  2    -0.570000    15.723500     6.289400     6.289400
375  375  3     0.860000    15.723500     9.434100     9.434100
376  376  1     0.850000    18.868200     6.289400     6.289400
377  377  2    -0.570000    18.868200     9.434100     6.289400
378  378  2    -0.570000    18.868200     6.289400     9.434100
379  379  2    -0.570000    22.012900     6.289400     6.289400
380  380  3     0.860000    22.012900     9.434100     9.434100
381  381  1     0.850000    25.157600     6.289400     6.289400
382  382  2    -0.570000    25.157600     9.434100     6.289400
383  383  2    -0.570000    25.157600     6.289400     9.434100
384  384  2    -0.570000    28.302300     6.289400     6.289400
385  385  3     0.860000    28.302300     9.434100     9.434100
386  386  1     0.850000    31.447000     6.289400     6.289400
387  387  2    -0.570000    31.447000     9.434100     6.289400
388  388  2    -0.570000    31.447000     6.289400     9.434100
389  389  2    -0.570000    34.591700     6.289400     6.289400
390  390  3     0.860000    34.591700     9.434100     9.434100
391  391  1     0.850000    37.736400     6.289400     6.289400
392  392  2    -0.570000    37.736400     9.434100     6.289400
393  393  2    -0.570000    37.736400     6.289400     9.434100
394  394  2    -0.570000    40.881100     6.289400     6.289400
395  395  3     0.860000    40.881100     9.434100     9.434100
396  396  1     0.850000    44.025800     6.289400     6.289400
397  397  2    -0.570000    44.025800     9.434100     6.289400
398  398  2    -0.570000    44.025800     6.289400     9.434100
399  399  2    -0.570000    47.170500     6.289400     6.289400
400  400  3     0.860000    47.170500     9.434100     9.434100
401  401  1     0.850000     0.000000     6.289400    12.578800
402  402  2    -0.570000     0.000000     9.434100    12.578800
403  403  2    -0.570000     0.000000     6.289400    15.723500
404  404  2    -0.570000     3.144700     6.289400    12.578800
405  405  3     0.860000     3.144700     9.434100    15.723500
406  406  1     0.850000     6.289400     6.289400    12.578800
407  407  2    -0.570000     6.289400     9.434100    12.578800
408  408  2    -0.570000     6.289400     6.289400    15.723500
409  409  2    -0.570000     9.434100     6.289400    12.578800
410  410  3     0.860000     9.434100     9.434100    15.723500
411  411  1     0.850000    12.578800     6.289400    12.578800
412  412  2    -0.570000    12.578800     9.434100    12.578800
413  413  2    -0.570000    12.578800     6.289400    15.723500
414  414  2    -0.570000    15.723500     6.289400    12.578800
415  415  3     0.860000    15.723500     9.434100    15.723500
416  416  1     0.850000    18.868200     6.289400    12.578800
417  417  2    -0.570000    18.868200     9.434100    12.578800
418  418  2    -0.570000    18.868200     6.289400    15.723500
419  419  2    -0.570000    22.012900     6.289400    12.578800
420  420  3     0.860000    22.012900     9.434100    15.723500
421  421  1     0.850000    25.157600     6.289400    12.578800
422  422  2    -0.570000    25.157600     9.434100    12.578800
423  423  2    -0.570000    25.157600     6.289400    15.723500
424  424  2    -0.570000    28.302300     6.289400    12.578800
425  425  3     0.860000    28.302300     9.434100    15.723500
426  426  1     0.850000    31.447000     6.289400    12.578800
427  427  2    -0.570000    31.447000     9.434100    12.578800
428  428  2    -0.570000    31.447000     6.289400    15.723500
429  429  2    -0.570000    34.591700     6.289400    12.578800
430  430  3     0.860000    34.591700     9.434100    15.723500
431  431  1     0.850000    37.736400     6.289400    12.578800
432  432  2    -0.570000    37.736400     9.434100    12.578800
433  433  2    -0.570000    37.736400     6.289400    15.723500
434  434  2    -0.570000    40.881100     6.289400    12.578800
435  435  3     0.860000    40.881100     9.434100    15.723500
436  436  1     0.850000    44.025800     6.289400    12.578800
437  437  2    -0.570000    44.025800     9.434100    12.578800
438  438  2    -0.570000    44.025800     6.289400    15.723500
439  439  2    -0.570000    47.170500     6.289400    12.578800
440  440  3     0.860000    47.170500     9.434100    15.723500
441  441  1     0.850000     0.000000     6.289400    18.868200
442  442  2    -0.570000     0.000000     9.434100    18.868200
443  443  2    -0.570000     0.000000     6.289400    22.012900
444  444  2    -0.570000     3.144700     6.289400    18.868200
445  445  3     0.860000     3.144700     9.434100    22.012900
446  446  1     0.850000     6.289400     6.289400    18.868200
447  447  2    -0.570000     6.289400     9.434100    18.868200
448  448  2    -0.570000     6.289400     6.289400    22.012900
449  449  2    -0.570000     9.434100     6.289400    18.868200
450  450  3     0.860000     9.434100     9.434100    22.012900
451  451  1     0.850000    12.578800     6.289400    18.868200
452  452  2    -0.570000    12.578800     9.434100    18.868200
453  453  2    -0.570000    12.578800     6.289400    22.012900
454  454  2    -0.570000    15.723500     6.289400    18.868200
455  455  3     0.860000    15.723500     9.434100    22.012900
456  456  1     0.850000    18.868200     6.289400    18.868200
457  457  2    -0.570000    18.868200     9.434100    18.868200
458  458  2    -0.570000    18.868200     6.289400    22.012900
459  459  2    -0.570000    22.012900     6.289400    18.868200
460  460  3     0.860000    22.012900     9.434100    22.012900
461  461  1     0.850000    25.157600     6.289400    18.868200
462  462  2    -0.570000    25.157600     9.434100    18.868200
463  463  2    -0.570000    25.157600     6.289400    22.012900
464  464  2    -0.570000    28.302300     6.289400    18.868200
465  465  3     0.860000    28.302300     9.434100    22.012900
466  466  1     0.850000    31.447000     6.289400    18.868200
467  467  2    -0.570000    31.447000     9.434100    18.868200
468  468  2    -0.570000    31.447000     6.289400    22.012900
469  469  2    -0.570000    34.591700     6.289400    18.868200